2.930377e-01 R 1.989847e-01 P LYS-46_A
-5.944470e-01 R 7.857435e-02 P ARG-39_A
7.244519e-02 R 1.715459e+00 D CTE-58_A
1.615459e+00 R 5.346321e+00 D TYR-10_A
-4.809346e+00 R -7.325290e+00 D -5.015742e+00 0 DPP-50_A
6.896664e-01 R 8.716310e-01 P ARG-42_A
-4.949422e-01 R 7.740985e+00 P LYS-41_A
8.699990e-02 R 7.953036e-02 P LYS-26_A
1.673246e+00 R 2.834363e+00 P ARG-20_A
5.783379e-02 R 1.656205e+00 D TYR-21_A
-6.227243e-01 R -7.426092e-01 D -6.030034e-01 0 DPP-3_A
-2.276873e+00 R 4.090462e-01 P ARG-1_A
-2.798818e+00 R 3.519002e+00 D TYR-35_A
1.940269e+00 R 8.894906e+00 P ARG-53_A
4.122832e+00 R 2.184013e+01 D TYR-23_A
-1.757306e+00 R 8.283257e+00 P NTE-1_A
6.229973e-01 R 4.031863e-01 P LYS-15_A
-1.234049e-01 R -6.972888e-01 D -6.264128e-01 0 EPP-49_A
-6.966187e-01 R 4.975360e+00 D 1.082166e+01 0 EPP-7_A
6.396583e-01 R -7.770419e-02 P ARG-17_A
