2.923178e-01 R 1.997035e-01 P LYS-46_A
-5.951667e-01 R 7.910018e-02 P ARG-39_A
5.868975e-02 R 1.876366e+00 D CTE-58_A
1.626688e+00 R 5.337447e+00 D TYR-10_A
-4.804139e+00 R -7.312873e+00 D -5.010971e+00 0 DPP-50_A
6.766799e-01 R 8.614160e-01 P ARG-42_A
-4.991928e-01 R 7.752303e+00 P LYS-41_A
7.405839e-02 R 1.114377e-01 P LYS-26_A
1.661597e+00 R 2.829762e+00 P ARG-20_A
5.656628e-02 R 1.645915e+00 D TYR-21_A
-6.171587e-01 R -6.645202e-01 D -6.017647e-01 0 DPP-3_A
-2.213913e+00 R 6.927584e-01 P ARG-1_A
-2.859385e+00 R 3.491259e+00 D TYR-35_A
1.946125e+00 R 8.900385e+00 P ARG-53_A
4.111201e+00 R 2.075926e+01 D TYR-23_A
-1.549152e+00 R 7.746859e+00 P NTE-1_A
6.224738e-01 R 4.055852e-01 P LYS-15_A
-1.238486e-01 R -6.997282e-01 D -6.270890e-01 0 EPP-49_A
-7.174034e-01 R 4.905133e+00 D 1.081119e+01 0 EPP-7_A
6.463330e-01 R -7.744800e-02 P ARG-17_A
