5.520949e-02 R 2.526460e-02 P LYS-46_A
-1.920686e-01 R 1.797896e-01 P ARG-39_A
6.557390e-03 R 8.984170e-01 D CTE-58_A
-5.370100e-02 R -7.380974e-01 D TYR-10_A
-3.287137e-01 R -1.240611e+00 D -3.236896e-01 0 DPP-50_A
-2.185442e-01 R 3.991828e-01 P ARG-42_A
-1.174855e-01 R 3.424908e-01 P LYS-41_A
7.381586e-02 R -1.203973e-01 P LYS-26_A
-8.100433e-02 R 7.002680e-02 P ARG-20_A
-1.605136e-01 R -1.323609e+00 D TYR-21_A
-1.320333e-01 R -4.611109e-01 D -1.703096e-01 0 DPP-3_A
-2.532102e-02 R -1.092289e+00 P ARG-1_A
-4.778332e-01 R -1.483689e+00 D TYR-35_A
-7.288588e-02 R 4.385814e-01 P ARG-53_A
-7.088332e-02 R 1.268212e+00 D TYR-23_A
-1.699440e-01 R 5.444821e-01 P NTE-1_A
1.642467e-01 R -1.970688e-01 P LYS-15_A
-1.552120e-01 R -1.225428e+00 D -2.390467e-01 0 EPP-49_A
-3.194473e-01 R -2.008313e+00 D 9.103826e-02 0 EPP-7_A
1.279548e-01 R -9.380239e-02 P ARG-17_A
